LAMMPS data file via write_data, version 23 Jun 2022, timestep = 15000000

13 atoms
2 atom types

-5.0 5.0 xlo xhi
-5.0 5.0 ylo yhi
-5.0 5.0 zlo zhi

Masses

1 6.0
2 1.0

Atoms # atomic

1 1 -0.5185 0.0447 -0.0001 0 0 0 
2 1 -0.6822 -1.4501 0 0 0 0 
3 1 0.8202 0.6168 0 0 0 0 
4 1 -1.5949 0.8486 0 0 0 0 
5 1 1.9754 -0.06 0 0 0 0 
6 2 -0.2221 -1.8912 -0.8909 0 0 0 
7 2 -1.737 -1.7472 0.0001 0 0 0 
8 2 -0.2221 -1.8911 0.8909 0 0 0 
9 2 0.8832 1.7038 0.0001 0 0 0 
10 2 -2.6016 0.4428 0 0 0 0 
11 2 -1.5045 1.9305 0 0 0 0 
12 2 2.9182 0.4777 0 0 0 0 
13 2 2.0229 -1.1428 -0.0001 0 0 0 
